
    -----------------------------------------------------------------------
          Psi4: An Open-Source Ab Initio Electronic Structure Package
                               Psi4 1.9.1 release

                         Git: Rev {} zzzzzzz 


    D. G. A. Smith, L. A. Burns, A. C. Simmonett, R. M. Parrish,
    M. C. Schieber, R. Galvelis, P. Kraus, H. Kruse, R. Di Remigio,
    A. Alenaizan, A. M. James, S. Lehtola, J. P. Misiewicz, M. Scheurer,
    R. A. Shaw, J. B. Schriber, Y. Xie, Z. L. Glick, D. A. Sirianni,
    J. S. O'Brien, J. M. Waldrop, A. Kumar, E. G. Hohenstein,
    B. P. Pritchard, B. R. Brooks, H. F. Schaefer III, A. Yu. Sokolov,
    K. Patkowski, A. E. DePrince III, U. Bozkaya, R. A. King,
    F. A. Evangelista, J. M. Turney, T. D. Crawford, C. D. Sherrill,
    J. Chem. Phys. 152(18) 184108 (2020). https://doi.org/10.1063/5.0006002

                            Additional Code Authors
    E. T. Seidl, C. L. Janssen, E. F. Valeev, M. L. Leininger,
    J. F. Gonthier, R. M. Richard, H. R. McAlexander, M. Saitow, X. Wang,
    P. Verma, M. H. Lechner, A. Jiang, S. Behnle, A. G. Heide,
    M. F. Herbst, and D. L. Poole

             Previous Authors, Complete List of Code Contributors,
                       and Citations for Specific Modules
    https://github.com/psi4/psi4/blob/master/codemeta.json
    https://github.com/psi4/psi4/graphs/contributors
    http://psicode.org/psi4manual/master/introduction.html#citing-psifour

    -----------------------------------------------------------------------


    Psi4 started on: Wednesday, 22 May 2024 04:09PM

    Process ID: 13648
    Host:       n2d037aeb.cns.vt.edu
    PSIDATADIR: /Users/bshumberger/miniconda3/envs/apyib/share/psi4
    Memory:     500.0 MiB
    Threads:    1
    
Scratch directory: /tmp/
   => Libint2 <=

    Primary   basis highest AM E, G, H:  6, 6, 3
    Auxiliary basis highest AM E, G, H:  7, 7, 4
    Onebody   basis highest AM E, G, H:  -, -, -
    Solid Harmonics ordering:            Gaussian

*** tstart() called on n2d037aeb.cns.vt.edu
*** at Wed May 22 16:09:22 2024

   => Loading Basis Set <=

    Name: STO-3G
    Role: ORBITAL
    Keyword: BASIS
    atoms 1   entry O          line    81 file /Users/bshumberger/miniconda3/envs/apyib/share/psi4/basis/sto-3g.gbs 
    atoms 2-3 entry H          line    19 file /Users/bshumberger/miniconda3/envs/apyib/share/psi4/basis/sto-3g.gbs 


         ---------------------------------------------------------
                                   SCF
               by Justin Turney, Rob Parrish, Andy Simmonett
                          and Daniel G. A. Smith
                              RHF Reference
                        1 Threads,    500 MiB Core
         ---------------------------------------------------------

  ==> Geometry <==

    Molecular point group: c1
    Full point group: C2v

    Geometry (in Bohr), charge = 0, multiplicity = 1:

       Center              X                  Y                   Z               Mass       
    ------------   -----------------  -----------------  -----------------  -----------------
         O            0.000000000000    -0.143225816552     0.000000000000    15.994914619570
         H            1.638036840407     1.136548822547     0.000000000000     1.007825032230
         H           -1.638036840407     1.136548822547     0.000000000000     1.007825032230

  Running in c1 symmetry.

  Rotational constants: A =     20.53324  B =     11.13094  C =      7.21807 [cm^-1]
  Rotational constants: A = 615571.06989  B = 333697.12648  C = 216392.26717 [MHz]
  Nuclear repulsion =    8.002367061810769

  Charge       = 0
  Multiplicity = 1
  Electrons    = 10
  Nalpha       = 5
  Nbeta        = 5

  ==> Algorithm <==

  SCF Algorithm Type is PK.
  DIIS enabled.
  MOM disabled.
  Fractional occupation disabled.
  Guess Type is SAD.
  Energy threshold   = 1.00e-12
  Density threshold  = 1.00e-12
  Integral threshold = 1.00e-12

  ==> Primary Basis <==

  Basis Set: STO-3G
    Blend: STO-3G
    Number of shells: 5
    Number of basis functions: 7
    Number of Cartesian functions: 7
    Spherical Harmonics?: true
    Max angular momentum: 1

  ==> Integral Setup <==

  Using in-core PK algorithm.
   Calculation information:
      Number of atoms:                   3
      Number of AO shells:               5
      Number of primitives:             15
      Number of atomic orbitals:         7
      Number of basis functions:         7

      Integral cutoff                 1.00e-12
      Number of threads:                 1

  Performing in-core PK
  Using 812 doubles for integral storage.
  We computed 120 shell quartets total.
  Whereas there are 120 unique shell quartets.

  ==> DiskJK: Disk-Based J/K Matrices <==

    J tasked:                  Yes
    K tasked:                  Yes
    wK tasked:                  No
    Memory [MiB]:              375
    Schwarz Cutoff:          1E-12

    OpenMP threads:              1

  Minimum eigenvalue in the overlap matrix is 4.3422214642E-01.
  Reciprocal condition number of the overlap matrix is 2.4648070069E-01.
    Using symmetric orthogonalization.

  ==> Pre-Iterations <==

  SCF Guess: Superposition of Atomic Densities via on-the-fly atomic UHF (no occupation information).

   -------------------------
    Irrep   Nso     Nmo    
   -------------------------
     A          7       7 
   -------------------------
    Total       7       7
   -------------------------

  ==> Iterations <==

                        Total Energy        Delta E     RMS |[F,P]|

   @RHF iter SAD:   -73.91840951492927   -7.39184e+01   0.00000e+00 
   @RHF iter   1:   -74.87336469738439   -9.54955e-01   3.97455e-02 DIIS/ADIIS
   @RHF iter   2:   -74.93987679223684   -6.65121e-02   8.33002e-03 DIIS/ADIIS
   @RHF iter   3:   -74.94199087858624   -2.11409e-03   1.37704e-03 DIIS/ADIIS
   @RHF iter   4:   -74.94207838062852   -8.75020e-05   1.30565e-04 DIIS/ADIIS
   @RHF iter   5:   -74.94207984100855   -1.46038e-06   3.02357e-05 DIIS
   @RHF iter   6:   -74.94207992817967   -8.71711e-08   3.92483e-07 DIIS
   @RHF iter   7:   -74.94207992819229   -1.26192e-11   1.37751e-09 DIIS
   @RHF iter   8:   -74.94207992819226    2.84217e-14   4.45924e-12 DIIS
   @RHF iter   9:   -74.94207992819220    5.68434e-14   5.56597e-15 DIIS
  Energy and wave function converged.


  ==> Post-Iterations <==

    Orbital Energies [Eh]
    ---------------------

    Doubly Occupied:                                                      

       1A    -20.262892     2A     -1.209697     3A     -0.547965  
       4A     -0.436527     5A     -0.387587  

    Virtual:                                                              

       6A      0.477619     7A      0.588139  

    Final Occupation by Irrep:
              A 
    DOCC [     5 ]
    NA   [     5 ]
    NB   [     5 ]

  @RHF Final Energy:   -74.94207992819220

   => Energetics <=

    Nuclear Repulsion Energy =              8.0023670618107694
    One-Electron Energy =                -120.1995588634626415
    Two-Electron Energy =                  37.2551118734596756
    Total Energy =                        -74.9420799281921859

Computation Completed


Properties will be evaluated at   0.000000,   0.000000,   0.000000 [a0]

Properties computed using the SCF density matrix


 Multipole Moments:

 ------------------------------------------------------------------------------------
     Multipole            Electronic (a.u.)      Nuclear  (a.u.)        Total (a.u.)
 ------------------------------------------------------------------------------------

 L = 1.  Multiply by 2.5417464519 to convert [e a0] to [Debye]
 Dipole X            :          0.0000000            0.0000000            0.0000000
 Dipole Y            :         -0.5237698            1.1272911            0.6035213
 Dipole Z            :          0.0000000            0.0000000            0.0000000
 Magnitude           :                                                    0.6035213

 ------------------------------------------------------------------------------------

*** tstop() called on n2d037aeb.cns.vt.edu at Wed May 22 16:09:22 2024
Module time:
	user time   =       0.14 seconds =       0.00 minutes
	system time =       0.00 seconds =       0.00 minutes
	total time  =          0 seconds =       0.00 minutes
Total time:
	user time   =       0.67 seconds =       0.01 minutes
	system time =       0.06 seconds =       0.00 minutes
	total time  =          1 seconds =       0.02 minutes
   => Loading Basis Set <=

    Name: STO-3G
    Role: ORBITAL
    Keyword: None
    atoms 1   entry O          line    81 file /Users/bshumberger/miniconda3/envs/apyib/share/psi4/basis/sto-3g.gbs 
    atoms 2-3 entry H          line    19 file /Users/bshumberger/miniconda3/envs/apyib/share/psi4/basis/sto-3g.gbs 

   => Loading Basis Set <=

    Name: STO-3G
    Role: ORBITAL
    Keyword: None
    atoms 1   entry O          line    81 file /Users/bshumberger/miniconda3/envs/apyib/share/psi4/basis/sto-3g.gbs 
    atoms 2-3 entry H          line    19 file /Users/bshumberger/miniconda3/envs/apyib/share/psi4/basis/sto-3g.gbs 

